<VTKFile type="UnstructuredGrid" version="0.1" byte_order="BigEndian">
	<UnstructuredGrid>
		<Piece NumberOfPoints="10201" NumberOfCells="20000">
			<PointData Scalars="scalars">
				<DataArray type="Float32" Name="solucao" Format="ascii">
				   10.000000000000
				   10.000000000000
				   10.000000000000
				   10.000000000000
				   10.000000000000
				   10.000000000000
				   10.000000000000
				   10.000000000000
				   10.000000000000
				   10.000000000000
				   10.000000000000
				   10.000000000000
				   10.000000000000
				   10.000000000000
				   10.000000000000
				   10.000000000000
				   10.000000000000
				   10.000000000000
				   10.000000000000
				   10.000000000000
				   10.000000000000
				   10.000000000000
				   10.000000000000
				   10.000000000000
				   10.000000000000
				   10.000000000000
				   10.000000000000
				   10.000000000000
				   10.000000000000
				   10.000000000000
				   10.000000000000
				   10.000000000000
				   10.000000000000
				   10.000000000000
				   10.000000000000
				   10.000000000000
				   10.000000000000
				   10.000000000000
				   10.000000000000
				   10.000000000000
				   10.000000000000
				   10.000000000000
				   10.000000000000
				   10.000000000000
				   10.000000000000
				   10.000000000000
				   10.000000000000
				   10.000000000000
				   10.000000000000
				   10.000000000000
				   10.000000000000
				   10.000000000000
				   10.000000000000
				   10.000000000000
				   10.000000000000
				   10.000000000000
				   10.000000000000
				   10.000000000000
				   10.000000000000
				   10.000000000000
				   10.000000000000
				   10.000000000000
				   10.000000000000
				   10.000000000000
				   10.000000000000
				   10.000000000000
				   10.000000000000
				   10.000000000000
				   10.000000000000
				   10.000000000000
				   10.000000000000
				   10.000000000000
				   10.000000000000
				   10.000000000000
				   10.000000000000
				   10.000000000000
				   10.000000000000
				   10.000000000000
				   10.000000000000
				   10.000000000000
				   10.000000000000
				   10.000000000000
				   10.000000000000
				   10.000000000000
				   10.000000000000
				   10.000000000000
				   10.000000000000
				   10.000000000000
				   10.000000000000
				   10.000000000000
				   10.000000000000
				   10.000000000000
				   10.000000000000
				   10.000000000000
				   10.000000000000
				   10.000000000000
				   10.000000000000
				   10.000000000000
				   10.000000000000
				   10.000000000000
				   10.000000000000
				   10.000000000000
				   9.999998172670
				   9.999996325794
				   9.999994515632
				   9.999992666550
				   9.999990698325
				   9.999988728819
				   9.999986735352
				   9.999984786308
				   9.999982906734
				   9.999980936412
				   9.999978922317
				   9.999976940715
				   9.999974965257
				   9.999972987569
				   9.999971060529
				   9.999969284587
				   9.999967596347
				   9.999965857920
				   9.999964252150
				   9.999962899240
				   9.999961613622
				   9.999960347252
				   9.999959103722
				   9.999957879728
				   9.999956690830
				   9.999955455115
				   9.999954190169
				   9.999952947701
				   9.999951670076
				   9.999950379586
				   9.999949081107
				   9.999947764186
				   9.999946464339
				   9.999945190668
				   9.999943937461
				   9.999942734021
				   9.999941529369
				   9.999940425843
				   9.999939384656
				   9.999938445494
				   9.999937569610
				   9.999936807730
				   9.999936221399
				   9.999935718942
				   9.999935232038
				   9.999934819651
				   9.999934556560
				   9.999934382541
				   9.999934253837
				   9.999934213404
				   9.999934253837
				   9.999934382541
				   9.999934556560
				   9.999934819651
				   9.999935232038
				   9.999935718942
				   9.999936221399
				   9.999936807730
				   9.999937569610
				   9.999938445494
				   9.999939384656
				   9.999940425843
				   9.999941529369
				   9.999942734021
				   9.999943937461
				   9.999945190668
				   9.999946464339
				   9.999947764186
				   9.999949081107
				   9.999950379586
				   9.999951670076
				   9.999952947701
				   9.999954190169
				   9.999955455115
				   9.999956690830
				   9.999957879728
				   9.999959103722
				   9.999960347252
				   9.999961613622
				   9.999962899240
				   9.999964252150
				   9.999965857920
				   9.999967596347
				   9.999969284587
				   9.999971060529
				   9.999972987569
				   9.999974965257
				   9.999976940715
				   9.999978922317
				   9.999980936412
				   9.999982906734
				   9.999984786308
				   9.999986735352
				   9.999988728819
				   9.999990698325
				   9.999992666550
				   9.999994515632
				   9.999996325794
				   9.999998172670
				   10.000000000000
				   10.000000000000
				   9.999996325794
				   9.999992630650
				   9.999988950497
				   9.999985192240
				   9.999981300346
				   9.999977324807
				   9.999973366259
				   9.999969518661
				   9.999965688618
				   9.999961728615
				   9.999957711248
				   9.999953797351
				   9.999949870406
				   9.999945887785
				   9.999942043930
				   9.999938554342
				   9.999935152479
				   9.999931693145
				   9.999928527177
				   9.999925825453
				   9.999923294177
				   9.999920765137
				   9.999918294405
				   9.999915883058
				   9.999913514564
				   9.999911058952
				   9.999908548911
				   9.999906075514
				   9.999903547172
				   9.999900945364
				   9.999898352629
				   9.999895695669
				   9.999893129967
				   9.999890573159
				   9.999888068033
				   9.999885633371
				   9.999883287155
				   9.999881066899
				   9.999879023745
				   9.999877133579
				   9.999875434921
				   9.999873943563
				   9.999872754664
				   9.999871746993
				   9.999870804930
				   9.999869975686
				   9.999869429165
				   9.999869106076
				   9.999868858297
				   9.999868741614
				   9.999868858297
				   9.999869106076
				   9.999869429165
				   9.999869975686
				   9.999870804930
				   9.999871746993
				   9.999872754664
				   9.999873943563
				   9.999875434921
				   9.999877133579
				   9.999879023745
				   9.999881066899
				   9.999883287155
				   9.999885633371
				   9.999888068033
				   9.999890573159
				   9.999893129967
				   9.999895695669
				   9.999898352629
				   9.999900945364
				   9.999903547172
				   9.999906075514
				   9.999908548911
				   9.999911058952
				   9.999913514564
				   9.999915883058
				   9.999918294405
				   9.999920765137
				   9.999923294177
				   9.999925825453
				   9.999928527177
				   9.999931693145
				   9.999935152479
				   9.999938554342
				   9.999942043930
				   9.999945887785
				   9.999949870406
				   9.999953797351
				   9.999957711248
				   9.999961728615
				   9.999965688618
				   9.999969518661
				   9.999973366259
				   9.999977324807
				   9.999981300346
				   9.999985192240
				   9.999988950497
				   9.999992630650
				   9.999996325794
				   10.000000000000
				   10.000000000000
				   9.999994515632
				   9.999988950497
				   9.999983389824
				   9.999977632828
				   9.999971737531
				   9.999965900121
				   9.999960056269
				   9.999954249702
				   9.999948496192
				   9.999942484142
				   9.999936444513
				   9.999930621377
				   9.999924811513
				   9.999918873258
				   9.999913171635
				   9.999907908554
				   9.999902798031
				   9.999897696628
				   9.999892986765
				   9.999888935245
				   9.999885175951
				   9.999881429796
				   9.999877709985
				   9.999874147758
				   9.999870598483
				   9.999866946829
				   9.999863223657
				   9.999859514268
				   9.999855729572
				   9.999851878406
				   9.999847982071
				   9.999844085828
				   9.999840201379
				   9.999836434427
				   9.999832711045
				   9.999829113568
				   9.999825619478
				   9.999822328495
				   9.999819283114
				   9.999816504383
				   9.999813958349
				   9.999811777135
				   9.999809990728
				   9.999808499045
				   9.999807038910
				   9.999805819592
				   9.999805048890
				   9.999804527338
				   9.999804134192
				   9.999803992269
				   9.999804134192
				   9.999804527338
				   9.999805048890
				   9.999805819592
				   9.999807038910
				   9.999808499045
				   9.999809990728
				   9.999811777135
				   9.999813958349
				   9.999816504383
				   9.999819283114
				   9.999822328495
				   9.999825619478
				   9.999829113568
				   9.999832711045
				   9.999836434427
				   9.999840201379
				   9.999844085828
				   9.999847982071
				   9.999851878406
				   9.999855729572
				   9.999859514268
				   9.999863223657
				   9.999866946829
				   9.999870598483
				   9.999874147758
				   9.999877709985
				   9.999881429796
				   9.999885175951
				   9.999888935245
				   9.999892986765
				   9.999897696628
				   9.999902798031
				   9.999907908554
				   9.999913171635
				   9.999918873258
				   9.999924811513
				   9.999930621377
				   9.999936444513
				   9.999942484142
				   9.999948496192
				   9.999954249702
				   9.999960056269
				   9.999965900121
				   9.999971737531
				   9.999977632828
				   9.999983389824
				   9.999988950497
				   9.999994515632
				   10.000000000000
				   10.000000000000
				   9.999992666550
				   9.999985192241
				   9.999977632828
				   9.999969951767
				   9.999962042008
				   9.999954300989
				   9.999946602941
				   9.999938866613
				   9.999931104057
				   9.999923113122
				   9.999915109359
				   9.999907406933
				   9.999899690248
				   9.999891806071
				   9.999884249485
				   9.999877368737
				   9.999870618969
				   9.999863771223
				   9.999857604770
				   9.999852251361
				   9.999847286787
				   9.999842290091
				   9.999837408466
				   9.999832669603
				   9.999828004626
				   9.999823164292
				   9.999818245204
				   9.999813326134
				   9.999808326151
				   9.999803246167
				   9.999798098463
				   9.999792966062
				   9.999787883380
				   9.999782912129
				   9.999778058527
				   9.999773285001
				   9.999768758165
				   9.999764397117
				   9.999760411550
				   9.999756716700
				   9.999753389837
				   9.999750496947
				   9.999748136967
				   9.999746106660
				   9.999744203989
				   9.999742602911
				   9.999741569349
				   9.999740879254
				   9.999740368901
				   9.999740150425
				   9.999740368901
				   9.999740879254
				   9.999741569349
				   9.999742602911
				   9.999744203989
				   9.999746106660
				   9.999748136967
				   9.999750496947
				   9.999753389837
				   9.999756716700
				   9.999760411550
				   9.999764397117
				   9.999768758165
				   9.999773285001
				   9.999778058527
				   9.999782912129
				   9.999787883380
				   9.999792966061
				   9.999798098463
				   9.999803246167
				   9.999808326151
				   9.999813326134
				   9.999818245204
				   9.999823164292
				   9.999828004626
				   9.999832669603
				   9.999837408465
				   9.999842290091
				   9.999847286787
				   9.999852251361
				   9.999857604770
				   9.999863771223
				   9.999870618969
				   9.999877368737
				   9.999884249485
				   9.999891806071
				   9.999899690248
				   9.999907406933
				   9.999915109359
				   9.999923113122
				   9.999931104057
				   9.999938866613
				   9.999946602941
				   9.999954300989
				   9.999962042008
				   9.999969951767
				   9.999977632828
				   9.999985192240
				   9.999992666550
				   10.000000000000
				   10.000000000000
				   9.999990698325
				   9.999981300346
				   9.999971737531
				   9.999962042008
				   9.999952288788
				   9.999942564035
				   9.999932908593
				   9.999923325762
				   9.999913597631
				   9.999903533154
				   9.999893594388
				   9.999883945378
				   9.999874333993
				   9.999864657980
				   9.999855392899
				   9.999846770854
				   9.999838334163
				   9.999829983127
				   9.999822349335
				   9.999815760702
				   9.999809535446
				   9.999803423514
				   9.999797354395
				   9.999791520642
				   9.999785749964
				   9.999779782648
				   9.999773694249
				   9.999767646005
				   9.999761460271
				   9.999755178252
				   9.999748859848
				   9.999742524319
				   9.999736279641
				   9.999730178692
				   9.999724169269
				   9.999718351130
				   9.999712736020
				   9.999707437646
				   9.999702461875
				   9.999697929260
				   9.999693828053
				   9.999690286103
				   9.999687334287
				   9.999684833901
				   9.999682455060
				   9.999680500144
				   9.999679230061
				   9.999678390444
				   9.999677714188
				   9.999677456858
				   9.999677714188
				   9.999678390444
				   9.999679230061
				   9.999680500144
				   9.999682455060
				   9.999684833901
				   9.999687334287
				   9.999690286103
				   9.999693828053
				   9.999697929260
				   9.999702461875
				   9.999707437646
				   9.999712736020
				   9.999718351130
				   9.999724169269
				   9.999730178692
				   9.999736279641
				   9.999742524319
				   9.999748859848
				   9.999755178252
				   9.999761460271
				   9.999767646005
				   9.999773694249
				   9.999779782648
				   9.999785749964
				   9.999791520642
				   9.999797354395
				   9.999803423514
				   9.999809535446
				   9.999815760702
				   9.999822349335
				   9.999829983127
				   9.999838334163
				   9.999846770854
				   9.999855392899
				   9.999864657980
				   9.999874333993
				   9.999883945378
				   9.999893594388
				   9.999903533154
				   9.999913597631
				   9.999923325762
				   9.999932908593
				   9.999942564035
				   9.999952288788
				   9.999962042008
				   9.999971737531
				   9.999981300346
				   9.999990698325
				   10.000000000000
				   10.000000000000
				   9.999988728819
				   9.999977324807
				   9.999965900121
				   9.999954300989
				   9.999942564035
				   9.999930958890
				   9.999919234177
				   9.999907641329
				   9.999895973895
				   9.999883921801
				   9.999872030371
				   9.999860581316
				   9.999849034737
				   9.999837476329
				   9.999826440142
				   9.999816273822
				   9.999806320280
				   9.999796306605
				   9.999787312728
				   9.999779523805
				   9.999772149745
				   9.999764796950
				   9.999757697170
				   9.999750748235
				   9.999743953718
				   9.999736904949
				   9.999729701984
				   9.999722525253
				   9.999715212577
				   9.999707776099
				   9.999700367138
				   9.999692886973
				   9.999685557351
				   9.999678351066
				   9.999671275908
				   9.999664396405
				   9.999657756651
				   9.999651449985
				   9.999645609899
				   9.999640258967
				   9.999635442574
				   9.999631240843
				   9.999627794710
				   9.999624806342
				   9.999622005707
				   9.999619707911
				   9.999618228523
				   9.999617144094
				   9.999616405393
				   9.999616081024
				   9.999616405393
				   9.999617144094
				   9.999618228523
				   9.999619707911
				   9.999622005707
				   9.999624806342
				   9.999627794710
				   9.999631240843
				   9.999635442574
				   9.999640258967
				   9.999645609899
				   9.999651449985
				   9.999657756651
				   9.999664396405
				   9.999671275908
				   9.999678351066
				   9.999685557351
				   9.999692886973
				   9.999700367138
				   9.999707776099
				   9.999715212577
				   9.999722525253
				   9.999729701984
				   9.999736904949
				   9.999743953718
				   9.999750748235
				   9.999757697170
				   9.999764796950
				   9.999772149745
				   9.999779523805
				   9.999787312728
				   9.999796306605
				   9.999806320280
				   9.999816273822
				   9.999826440142
				   9.999837476329
				   9.999849034737
				   9.999860581316
				   9.999872030371
				   9.999883921801
				   9.999895973895
				   9.999907641329
				   9.999919234177
				   9.999930958890
				   9.999942564035
				   9.999954300989
				   9.999965900121
				   9.999977324807
				   9.999988728819
				   10.000000000000
				   10.000000000000
				   9.999986735352
				   9.999973366259
				   9.999960056269
				   9.999946602941
				   9.999932908593
				   9.999919234177
				   9.999905572175
				   9.999891904772
				   9.999878235758
				   9.999864340600
				   9.999850572532
				   9.999837103821
				   9.999823640207
				   9.999810273153
				   9.999797727011
				   9.999785932645
				   9.999774201840
				   9.999762836316
				   9.999752579580
				   9.999743558284
				   9.999734946267
				   9.999726542800
				   9.999718291196
				   9.999710347670
				   9.999702480958
				   9.999694386274
				   9.999686121165
				   9.999677885039
				   9.999669488526
				   9.999660993171
				   9.999652489462
				   9.999643983185
				   9.999635595730
				   9.999627368298
				   9.999619239735
				   9.999611331762
				   9.999603703175
				   9.999596472717
				   9.999589752638
				   9.999583608638
				   9.999578089216
				   9.999573318260
				   9.999569335723
				   9.999565956761
				   9.999562760518
				   9.999560162198
				   9.999558420650
				   9.999557277628
				   9.999556364827
				   9.999556032148
				   9.999556364827
				   9.999557277628
				   9.999558420650
				   9.999560162198
				   9.999562760518
				   9.999565956761
				   9.999569335723
				   9.999573318260
				   9.999578089216
				   9.999583608638
				   9.999589752638
				   9.999596472717
				   9.999603703175
				   9.999611331762
				   9.999619239735
				   9.999627368298
				   9.999635595730
				   9.999643983185
				   9.999652489462
				   9.999660993171
				   9.999669488526
				   9.999677885039
				   9.999686121165
				   9.999694386274
				   9.999702480958
				   9.999710347670
				   9.999718291196
				   9.999726542800
				   9.999734946267
				   9.999743558284
				   9.999752579580
				   9.999762836316
				   9.999774201840
				   9.999785932645
				   9.999797727011
				   9.999810273153
				   9.999823640207
				   9.999837103821
				   9.999850572532
				   9.999864340600
				   9.999878235758
				   9.999891904772
				   9.999905572175
				   9.999919234177
				   9.999932908593
				   9.999946602941
				   9.999960056269
				   9.999973366259
				   9.999986735352
				   10.000000000000
				   10.000000000000
				   9.999984786308
				   9.999969518661
				   9.999954249702
				   9.999938866613
				   9.999923325762
				   9.999907641329
				   9.999891904772
				   9.999876284245
				   9.999860549835
				   9.999844754756
				   9.999829171609
				   9.999813809433
				   9.999798521813
				   9.999783482518
				   9.999769151673
				   9.999755743111
				   9.999742617080
				   9.999729745244
				   9.999718286450
				   9.999708078712
				   9.999698378599
				   9.999688766656
				   9.999679484879
				   9.999670466440
				   9.999661557061
				   9.999652419676
				   9.999643140996
				   9.999633879612
				   9.999624459062
				   9.999614939780
				   9.999605406029
				   9.999595901051
				   9.999586517544
				   9.999577270254
				   9.999568178519
				   9.999559269274
				   9.999550717495
				   9.999542559906
				   9.999535033696
				   9.999528160593
				   9.999521973820
				   9.999516585857
				   9.999512165574
				   9.999508377565
				   9.999504879012
				   9.999502007924
				   9.999500144330
				   9.999498783330
				   9.999497905224
				   9.999497548017
				   9.999497905224
				   9.999498783330
				   9.999500144330
				   9.999502007924
				   9.999504879012
				   9.999508377565
				   9.999512165574
				   9.999516585857
				   9.999521973820
				   9.999528160593
				   9.999535033696
				   9.999542559905
				   9.999550717495
				   9.999559269274
				   9.999568178519
				   9.999577270254
				   9.999586517544
				   9.999595901051
				   9.999605406029
				   9.999614939780
				   9.999624459062
				   9.999633879612
				   9.999643140996
				   9.999652419676
				   9.999661557061
				   9.999670466440
				   9.999679484879
				   9.999688766656
				   9.999698378599
				   9.999708078712
				   9.999718286450
				   9.999729745244
				   9.999742617080
				   9.999755743111
				   9.999769151673
				   9.999783482518
				   9.999798521813
				   9.999813809433
				   9.999829171609
				   9.999844754756
				   9.999860549835
				   9.999876284245
				   9.999891904772
				   9.999907641329
				   9.999923325762
				   9.999938866613
				   9.999954249702
				   9.999969518661
				   9.999984786308
				   10.000000000000
				   10.000000000000
				   9.999982906734
				   9.999965688618
				   9.999948496192
				   9.999931104057
				   9.999913597631
				   9.999895973895
				   9.999878235758
				   9.999860549835
				   9.999842973322
				   9.999825362591
				   9.999808005707
				   9.999790783035
				   9.999773647074
				   9.999756949779
				   9.999741240472
				   9.999726351096
				   9.999711503423
				   9.999697380895
				   9.999684840656
				   9.999673556030
				   9.999662576046
				   9.999651997994
				   9.999641615120
				   9.999631513054
				   9.999621550023
				   9.999611328378
				   9.999601023341
				   9.999590725796
				   9.999580275146
				   9.999569743892
				   9.999559218056
				   9.999548737824
				   9.999538362749
				   9.999528139325
				   9.999518069608
				   9.999508272244
				   9.999498791111
				   9.999489856445
				   9.999481569371
				   9.999474035384
				   9.999467206917
				   9.999461303074
				   9.999456477236
				   9.999452363297
				   9.999448573880
				   9.999445481701
				   9.999443404925
				   9.999442047375
				   9.999441023398
				   9.999440729794
				   9.999441023398
				   9.999442047375
				   9.999443404925
				   9.999445481701
				   9.999448573880
				   9.999452363297
				   9.999456477236
				   9.999461303074
				   9.999467206917
				   9.999474035384
				   9.999481569371
				   9.999489856445
				   9.999498791111
				   9.999508272244
				   9.999518069607
				   9.999528139325
				   9.999538362749
				   9.999548737824
				   9.999559218056
				   9.999569743892
				   9.999580275146
				   9.999590725796
				   9.999601023341
				   9.999611328378
				   9.999621550022
				   9.999631513054
				   9.999641615120
				   9.999651997994
				   9.999662576046
				   9.999673556030
				   9.999684840656
				   9.999697380895
				   9.999711503423
				   9.999726351096
				   9.999741240472
				   9.999756949779
				   9.999773647074
				   9.999790783035
				   9.999808005707
				   9.999825362591
				   9.999842973322
				   9.999860549835
				   9.999878235758
				   9.999895973895
				   9.999913597631
				   9.999931104057
				   9.999948496192
				   9.999965688618
				   9.999982906734
				   10.000000000000
				   10.000000000000
				   9.999980936412
				   9.999961728615
				   9.999942484142
				   9.999923113122
				   9.999903533154
				   9.999883921801
				   9.999864340600
				   9.999844754756
				   9.999825362591
				   9.999806056199
				   9.999786760879
				   9.999767717100
				   9.999748990314
				   9.999730977979
				   9.999713753656
				   9.999697073834
				   9.999681014681
				   9.999665801822
				   9.999652163729
				   9.999639625345
				   9.999627666185
				   9.999615927343
				   9.999604593545
				   9.999593424843
				   9.999582393923
				   9.999571119949
				   9.999559715671
				   9.999548368340
				   9.999536848924
				   9.999525273319
				   9.999513734722
				   9.999502271400
				   9.999490941500
				   9.999479787747
				   9.999468777425
				   9.999458081204
				   9.999447799158
				   9.999438077063
				   9.999429143590
				   9.999420974344
				   9.999413661187
				   9.999407287676
				   9.999402091526
				   9.999397663210
				   9.999393677646
				   9.999390388434
				   9.999388164526
				   9.999386587921
				   9.999385650634
				   9.999385296423
				   9.999385650634
				   9.999386587921
				   9.999388164526
				   9.999390388434
				   9.999393677646
				   9.999397663210
				   9.999402091526
				   9.999407287676
				   9.999413661187
				   9.999420974344
				   9.999429143590
				   9.999438077063
				   9.999447799158
				   9.999458081204
				   9.999468777425
				   9.999479787747
				   9.999490941500
				   9.999502271400
				   9.999513734722
				   9.999525273319
				   9.999536848924
				   9.999548368339
				   9.999559715671
				   9.999571119949
				   9.999582393923
				   9.999593424843
				   9.999604593545
				   9.999615927343
				   9.999627666185
				   9.999639625345
				   9.999652163729
				   9.999665801822
				   9.999681014681
				   9.999697073834
				   9.999713753656
				   9.999730977979
				   9.999748990314
				   9.999767717100
				   9.999786760879
				   9.999806056199
				   9.999825362591
				   9.999844754756
				   9.999864340600
				   9.999883921801
				   9.999903533154
				   9.999923113122
				   9.999942484142
				   9.999961728615
				   9.999980936412
				   10.000000000000
				   10.000000000000
				   9.999978922317
				   9.999957711248
				   9.999936444513
				   9.999915109359
				   9.999893594388
				   9.999872030371
				   9.999850572532
				   9.999829171609
				   9.999808005707
				   9.999786760879
				   9.999765684407
				   9.999744944082
				   9.999724811881
				   9.999705151525
				   9.999686281332
				   9.999668420666
				   9.999650994592
				   9.999634691420
				   9.999619969977
				   9.999606409527
				   9.999593196624
				   9.999580540981
				   9.999568165330
				   9.999556019852
				   9.999543922559
				   9.999531650094
				   9.999519207545
				   9.999506807378
				   9.999494237839
				   9.999481604051
				   9.999469087204
				   9.999456657632
				   9.999444383094
				   9.999432247134
				   9.999420354495
				   9.999408802641
				   9.999397732177
				   9.999387281587
				   9.999377688522
				   9.999368965069
				   9.999361108988
				   9.999354359992
				   9.999348806151
				   9.999344234297
				   9.999339978615
				   9.999336602484
				   9.999334189805
				   9.999332558206
				   9.999331545044
				   9.999331231209
				   9.999331545044
				   9.999332558206
				   9.999334189805
				   9.999336602484
				   9.999339978615
				   9.999344234297
				   9.999348806151
				   9.999354359992
				   9.999361108988
				   9.999368965069
				   9.999377688522
				   9.999387281587
				   9.999397732177
				   9.999408802641
				   9.999420354495
				   9.999432247134
				   9.999444383094
				   9.999456657632
				   9.999469087204
				   9.999481604051
				   9.999494237839
				   9.999506807378
				   9.999519207545
				   9.999531650094
				   9.999543922559
				   9.999556019852
				   9.999568165330
				   9.999580540981
				   9.999593196624
				   9.999606409527
				   9.999619969977
				   9.999634691420
				   9.999650994592
				   9.999668420666
				   9.999686281332
				   9.999705151525
				   9.999724811881
				   9.999744944082
				   9.999765684407
				   9.999786760879
				   9.999808005707
				   9.999829171609
				   9.999850572532
				   9.999872030371
				   9.999893594388
				   9.999915109359
				   9.999936444513
				   9.999957711248
				   9.999978922317
				   10.000000000000
				   10.000000000000
				   9.999976940715
				   9.999953797351
				   9.999930621377
				   9.999907406933
				   9.999883945378
				   9.999860581316
				   9.999837103821
				   9.999813809433
				   9.999790783035
				   9.999767717100
				   9.999744944082
				   9.999722731967
				   9.999700909927
				   9.999679789668
				   9.999659648384
				   9.999640151814
				   9.999621504516
				   9.999604297593
				   9.999588649067
				   9.999573750395
				   9.999559554916
				   9.999545895507
				   9.999532511519
				   9.999519323680
				   9.999506266822
				   9.999492981627
				   9.999479592482
				   9.999466149326
				   9.999452571528
				   9.999438932852
				   9.999425430591
				   9.999412044902
				   9.999398829297
				   9.999385778371
				   9.999372994836
				   9.999360601062
				   9.999348731318
				   9.999337555570
				   9.999327300173
				   9.999318022209
				   9.999309721840
				   9.999302584219
				   9.999296755637
				   9.999291850210
				   9.999287592565
				   9.999284079848
				   9.999281579157
				   9.999279788311
				   9.999278845715
				   9.999278536974
				   9.999278845715
				   9.999279788311
				   9.999281579157
				   9.999284079848
				   9.999287592565
				   9.999291850210
				   9.999296755637
				   9.999302584219
				   9.999309721840
				   9.999318022209
				   9.999327300173
				   9.999337555570
				   9.999348731318
				   9.999360601062
				   9.999372994836
				   9.999385778371
				   9.999398829297
				   9.999412044902
				   9.999425430591
				   9.999438932852
				   9.999452571527
				   9.999466149325
				   9.999479592482
				   9.999492981627
				   9.999506266822