<VTKFile type="UnstructuredGrid" version="0.1" byte_order="BigEndian">
	<UnstructuredGrid>
		<Piece NumberOfPoints="10201" NumberOfCells="20000">
			<PointData Scalars="scalars">
				<DataArray type="Float32" Name="solucao" Format="ascii">
				   10.000000000000
				   10.000000000000
				   10.000000000000
				   10.000000000000
				   10.000000000000
				   10.000000000000
				   10.000000000000
				   10.000000000000
				   10.000000000000
				   10.000000000000
				   10.000000000000
				   10.000000000000
				   10.000000000000
				   10.000000000000
				   10.000000000000
				   10.000000000000
				   10.000000000000
				   10.000000000000
				   10.000000000000
				   10.000000000000
				   10.000000000000
				   10.000000000000
				   10.000000000000
				   10.000000000000
				   10.000000000000
				   10.000000000000
				   10.000000000000
				   10.000000000000
				   10.000000000000
				   10.000000000000
				   10.000000000000
				   10.000000000000
				   10.000000000000
				   10.000000000000
				   10.000000000000
				   10.000000000000
				   10.000000000000
				   10.000000000000
				   10.000000000000
				   10.000000000000
				   10.000000000000
				   10.000000000000
				   10.000000000000
				   10.000000000000
				   10.000000000000
				   10.000000000000
				   10.000000000000
				   10.000000000000
				   10.000000000000
				   10.000000000000
				   10.000000000000
				   10.000000000000
				   10.000000000000
				   10.000000000000
				   10.000000000000
				   10.000000000000
				   10.000000000000
				   10.000000000000
				   10.000000000000
				   10.000000000000
				   10.000000000000
				   10.000000000000
				   10.000000000000
				   10.000000000000
				   10.000000000000
				   10.000000000000
				   10.000000000000
				   10.000000000000
				   10.000000000000
				   10.000000000000
				   10.000000000000
				   10.000000000000
				   10.000000000000
				   10.000000000000
				   10.000000000000
				   10.000000000000
				   10.000000000000
				   10.000000000000
				   10.000000000000
				   10.000000000000
				   10.000000000000
				   10.000000000000
				   10.000000000000
				   10.000000000000
				   10.000000000000
				   10.000000000000
				   10.000000000000
				   10.000000000000
				   10.000000000000
				   10.000000000000
				   10.000000000000
				   10.000000000000
				   10.000000000000
				   10.000000000000
				   10.000000000000
				   10.000000000000
				   10.000000000000
				   10.000000000000
				   10.000000000000
				   10.000000000000
				   10.000000000000
				   10.000000000000
				   9.999998710739
				   9.999999116384
				   9.999997975193
				   9.999998143987
				   9.999997060324
				   9.999997074054
				   9.999996494682
				   9.999995686792
				   9.999995703104
				   9.999995680838
				   9.999995608477
				   9.999995081405
				   9.999994819060
				   9.999994175104
				   9.999994576443
				   9.999994287320
				   9.999992728634
				   9.999992281991
				   9.999992766187
				   9.999991941620
				   9.999990390836
				   9.999989722799
				   9.999989543040
				   9.999989043792
				   9.999988268956
				   9.999987677358
				   9.999987152234
				   9.999986737749
				   9.999986460888
				   9.999986080460
				   9.999985914694
				   9.999985684383
				   9.999985160814
				   9.999984843586
				   9.999984393903
				   9.999983840169
				   9.999983854608
				   9.999983826201
				   9.999983401248
				   9.999983328097
				   9.999983317315
				   9.999982854915
				   9.999982738143
				   9.999983215907
				   9.999983437963
				   9.999983439505
				   9.999983831529
				   9.999984223305
				   9.999984112301
				   9.999984002322
				   9.999984263519
				   9.999984361383
				   9.999984015520
				   9.999983754342
				   9.999983844877
				   9.999983828308
				   9.999983441922
				   9.999983070727
				   9.999983007318
				   9.999982990445
				   9.999982761778
				   9.999982536414
				   9.999982607392
				   9.999982849182
				   9.999982938409
				   9.999982862675
				   9.999982902928
				   9.999983179430
				   9.999983478870
				   9.999983574183
				   9.999983528633
				   9.999983575555
				   9.999983798887
				   9.999984063926
				   9.999984243264
				   9.999984393960
				   9.999984668431
				   9.999985117028
				   9.999985638257
				   9.999986107996
				   9.999986519416
				   9.999986977518
				   9.999987559945
				   9.999988222619
				   9.999988862636
				   9.999989428923
				   9.999989968103
				   9.999990579269
				   9.999991279175
				   9.999991994354
				   9.999992715161
				   9.999993451636
				   9.999994169365
				   9.999994915026
				   9.999995759364
				   9.999996690175
				   9.999997640405
				   9.999998563599
				   9.999999314918
				   10.000000000000
				   10.000000000000
				   9.999999116384
				   9.999997790829
				   9.999996243876
				   9.999995775515
				   9.999993994578
				   9.999993583836
				   9.999993249013
				   9.999991842801
				   9.999991631354
				   9.999991184305
				   9.999990250282
				   9.999989522982
				   9.999989540763
				   9.999988899859
				   9.999987376734
				   9.999986848945
				   9.999986221597
				   9.999985273318
				   9.999984591141
				   9.999983065879
				   9.999980978773
				   9.999979721736
				   9.999978936217
				   9.999977879423
				   9.999976427518
				   9.999975282930
				   9.999974281823
				   9.999973354505
				   9.999972889455
				   9.999972236455
				   9.999971727897
				   9.999971353809
				   9.999970237137
				   9.999969268033
				   9.999968711612
				   9.999967835419
				   9.999967424878
				   9.999967532674
				   9.999967032552
				   9.999966336075
				   9.999966110162
				   9.999965841978
				   9.999965611370
				   9.999966034420
				   9.999966746384
				   9.999967171469
				   9.999967493987
				   9.999967888341
				   9.999968143975
				   9.999968221812
				   9.999968232233
				   9.999968116797
				   9.999967872257
				   9.999967662903
				   9.999967478555
				   9.999967129580
				   9.999966642635
				   9.999966238837
				   9.999965938970
				   9.999965588588
				   9.999965246173
				   9.999965165565
				   9.999965367088
				   9.999965558514
				   9.999965572141
				   9.999965615129
				   9.999965938497
				   9.999966441591
				   9.999966796193
				   9.999966885204
				   9.999966932135
				   9.999967180814
				   9.999967595737
				   9.999967971365
				   9.999968260177
				   9.999968657369
				   9.999969343491
				   9.999970256216
				   9.999971186437
				   9.999972031097
				   9.999972883968
				   9.999973905767
				   9.999975127271
				   9.999976397186
				   9.999977563198
				   9.999978638526
				   9.999979766777
				   9.999981111263
				   9.999982644760
				   9.999984102758
				   9.999985417809
				   9.999986789083
				   9.999988273177
				   9.999989856415
				   9.999991572326
				   9.999993294246
				   9.999994985084
				   9.999996888036
				   9.999998582908
				   10.000000000000
				   10.000000000000
				   9.999997975193
				   9.999996243876
				   9.999995040106
				   9.999993052139
				   9.999991668650
				   9.999990034991
				   9.999989744920
				   9.999988509251
				   9.999986636448
				   9.999986164373
				   9.999985958140
				   9.999985070636
				   9.999984037728
				   9.999982987634
				   9.999981728375
				   9.999980443725
				   9.999979135378
				   9.999977773305
				   9.999976437418
				   9.999974210568
				   9.999971530064
				   9.999969750468
				   9.999968333446
				   9.999966736855
				   9.999964664600
				   9.999962877057
				   9.999961510186
				   9.999960105126
				   9.999959390739
				   9.999958703435
				   9.999957623091
				   9.999956751935
				   9.999955419603
				   9.999953764558
				   9.999952705309
				   9.999951997317
				   9.999951426047
				   9.999950981401
				   9.999950354573
				   9.999949617707
				   9.999948939793
				   9.999948441432
				   9.999948579811
				   9.999949323449
				   9.999949979689
				   9.999950468723
				   9.999951184926
				   9.999951844528
				   9.999951989384
				   9.999951919488
				   9.999952011836
				   9.999951989301
				   9.999951591155
				   9.999951118523
				   9.999950828107
				   9.999950485945
				   9.999949858947
				   9.999949123738
				   9.999948554521
				   9.999948187160
				   9.999947957580
				   9.999947884516
				   9.999947970408
				   9.999948122999
				   9.999948300097
				   9.999948592627
				   9.999949056249
				   9.999949563574
				   9.999949935768
				   9.999950166457
				   9.999950414642
				   9.999950793625
				   9.999951256774
				   9.999951720828
				   9.999952245933
				   9.999953015098
				   9.999954110177
				   9.999955384946
				   9.999956644546
				   9.999957887772
				   9.999959274685
				   9.999960917444
				   9.999962752996
				   9.999964573987
				   9.999966250738
				   9.999967889495
				   9.999969658164
				   9.999971687614
				   9.999974011972
				   9.999976299809
				   9.999978274699
				   9.999980222791
				   9.999982430036
				   9.999984950297
				   9.999987700480
				   9.999990225859
				   9.999992579983
				   9.999994975021
				   9.999997677019
				   10.000000000000
				   10.000000000000
				   9.999998143987
				   9.999995775515
				   9.999993052139
				   9.999990595552
				   9.999989477929
				   9.999987869557
				   9.999986188858
				   9.999984628182
				   9.999983531245
				   9.999982566398
				   9.999981163286
				   9.999979762079
				   9.999978787926
				   9.999976794607
				   9.999975716454
				   9.999974263278
				   9.999972070668
				   9.999970026018
				   9.999968168742
				   9.999965370198
				   9.999962072724
				   9.999959835030
				   9.999957820942
				   9.999955597673
				   9.999952991103
				   9.999950494034
				   9.999948822395
				   9.999947268687
				   9.999946007237
				   9.999945111235
				   9.999943836624
				   9.999942085367
				   9.999940173799
				   9.999938514463
				   9.999937079133
				   9.999935887436
				   9.999935349297
				   9.999934821421
				   9.999933585156
				   9.999932435877
				   9.999931899188
				   9.999931534311
				   9.999931531380
				   9.999932279426
				   9.999933284344
				   9.999934089426
				   9.999934810248
				   9.999935379449
				   9.999935602884
				   9.999935663190
				   9.999935685081
				   9.999935433198
				   9.999934907002
				   9.999934476650
				   9.999934180137
				   9.999933610731
				   9.999932660200
				   9.999931753413
				   9.999931212790
				   9.999930893216
				   9.999930586082
				   9.999930382976
				   9.999930456545
				   9.999930755560
				   9.999931111835
				   9.999931489813
				   9.999931957729
				   9.999932496897
				   9.999932990937
				   9.999933382078
				   9.999933733885
				   9.999934143636
				   9.999934668746
				   9.999935345871
				   9.999936231152
				   9.999937390710
				   9.999938829159
				   9.999940437834
				   9.999942097811
				   9.999943838980
				   9.999945780587
				   9.999947949044
				   9.999950254144
				   9.999952556139
				   9.999954812692
				   9.999957194189
				   9.999959769963
				   9.999962430229
				   9.999965298175
				   9.999968351505
				   9.999971211238
				   9.999973887278
				   9.999976732809
				   9.999979997780
				   9.999983558768
				   9.999987248079
				   9.999990244184
				   9.999993274380
				   9.999996703799
				   10.000000000000
				   10.000000000000
				   9.999997060324
				   9.999993994578
				   9.999991668650
				   9.999989477929
				   9.999986616796
				   9.999984394210
				   9.999983056005
				   9.999980924594
				   9.999979365454
				   9.999978124868
				   9.999976311852
				   9.999974375307
				   9.999973147291
				   9.999971162963
				   9.999969416485
				   9.999967461871
				   9.999964917027
				   9.999962335693
				   9.999959807955
				   9.999956518598
				   9.999952710096
				   9.999950019784
				   9.999947438097
				   9.999944414827
				   9.999941430695
				   9.999938505135
				   9.999936200878
				   9.999934641869
				   9.999933230182
				   9.999931489846
				   9.999929740494
				   9.999927794984
				   9.999925190338
				   9.999922975782
				   9.999921628502
				   9.999920375667
				   9.999919247019
				   9.999918249654
				   9.999916969363
				   9.999915764552
				   9.999914953106
				   9.999914441325
				   9.999914640946
				   9.999915678168
				   9.999916762293
				   9.999917522657
				   9.999918314973
				   9.999919049022
				   9.999919293227
				   9.999919161737
				   9.999918990206
				   9.999918726799
				   9.999918272869
				   9.999917769510
				   9.999917211635
				   9.999916381591
				   9.999915336686
				   9.999914448869
				   9.999913873414
				   9.999913417066
				   9.999912995024
				   9.999912821203
				   9.999913029721
				   9.999913423777
				   9.999913767771
				   9.999914113614
				   9.999914648512
				   9.999915347534
				   9.999915977445
				   9.999916410039
				   9.999916768521
				   9.999917257999
				   9.999917984997
				   9.999918964850
				   9.999920193545
				   9.999921676385
				   9.999923429559
				   9.999925437158
				   9.999927627617
				   9.999929965210
				   9.999932471682
				   9.999935104587
				   9.999937782699
				   9.999940480847
				   9.999943258781
				   9.999946364256
				   9.999949880912
				   9.999953377279
				   9.999956744284
				   9.999960386972
				   9.999964205162
				   9.999967875716
				   9.999971575012
				   9.999975367698
				   9.999979076080
				   9.999983575591
				   9.999987763703
				   9.999991548862
				   9.999995748475
				   10.000000000000
				   10.000000000000
				   9.999997074054
				   9.999993583836
				   9.999990034991
				   9.999987869557
				   9.999984394210
				   9.999981309045
				   9.999979976208
				   9.999977765361
				   9.999975559923
				   9.999973696533
				   9.999971491067
				   9.999969235985
				   9.999967011818
				   9.999965189111
				   9.999963044600
				   9.999960306838
				   9.999957209271
				   9.999954180812
				   9.999951111872
				   9.999947473204
				   9.999943179116
				   9.999939831872
				   9.999936899027
				   9.999933173901
				   9.999929457396
				   9.999926558173
				   9.999923999967
				   9.999921719751
				   9.999920110523
				   9.999918143202
				   9.999915487685
				   9.999912841482
				   9.999910197541
				   9.999907863245
				   9.999905990651
				   9.999904294540
				   9.999903029135
				   9.999901874503
				   9.999900226784
				   9.999898701035
				   9.999897876206
				   9.999897539946
				   9.999897824496
				   9.999898824504
				   9.999899946703
				   9.999900887296
				   9.999901809540
				   9.999902447269
				   9.999902462341
				   9.999902202410
				   9.999902066528
				   9.999901832297
				   9.999901237878
				   9.999900474177
				   9.999899716209
				   9.999898826350
				   9.999897765958
				   9.999896782959
				   9.999896041539
				   9.999895470553
				   9.999895068497
				   9.999895002177
				   9.999895289724
				   9.999895675427
				   9.999895974129
				   9.999896334782
				   9.999896980967
				   9.999897818858
				   9.999898516198
				   9.999898944854
				   9.999899349598
				   9.999900037825
				   9.999901077065
				   9.999902375631
				   9.999903894112
				   9.999905673812
				   9.999907773910
				   9.999910215948
				   9.999912920359
				   9.999915784022
				   9.999918800440
				   9.999921943215
				   9.999925137580
				   9.999928396538
				   9.999931733133
				   9.999935336814
				   9.999939554944
				   9.999944012435
				   9.999948140054
				   9.999952319489
				   9.999956832954
				   9.999961509971
				   9.999966374842
				   9.999971019473
				   9.999975366419
				   9.999979958261
				   9.999984985999
				   9.999989820412
				   9.999994891941
				   10.000000000000
				   10.000000000000
				   9.999996494682
				   9.999993249013
				   9.999989744920
				   9.999986188858
				   9.999983056005
				   9.999979976208
				   9.999977640880
				   9.999974810135
				   9.999972240789
				   9.999969889418
				   9.999967208139
				   9.999964554087
				   9.999961996360
				   9.999959280366
				   9.999956650849
				   9.999953579676
				   9.999949887363
				   9.999946364507
				   9.999942769725
				   9.999938753420
				   9.999934264521
				   9.999930074708
				   9.999926426474
				   9.999922678050
				   9.999918461826
				   9.999914891850
				   9.999912390129
				   9.999909987615
				   9.999907506981
				   9.999904797537
				   9.999901906729
				   9.999898987703
				   9.999895818598
				   9.999893041420
				   9.999890976743
				   9.999889105455
				   9.999887465696
				   9.999885869739
				   9.999883989202
				   9.999882468568
				   9.999881667937
				   9.999881253639
				   9.999881490329
				   9.999882617548
				   9.999883947038
				   9.999884944582
				   9.999885705599
				   9.999886134680
				   9.999886072774
				   9.999885839202
				   9.999885662653
				   9.999885238481
				   9.999884402093
				   9.999883481944
				   9.999882662591
				   9.999881699274
				   9.999880483611
				   9.999879322919
				   9.999878493093
				   9.999877949927
				   9.999877608013
				   9.999877548201
				   9.999877802697
				   9.999878199852
				   9.999878592639
				   9.999879074812
				   9.999879798083
				   9.999880665279
				   9.999881393432
				   9.999881895967
				   9.999882443836
				   9.999883358621
				   9.999884673692
				   9.999886238050
				   9.999888029848
				   9.999890173971
				   9.999892745836
				   9.999895697193
				   9.999898873571
				   9.999902127134
				   9.999905497070
				   9.999909080021
				   9.999912876351
				   9.999916940437
				   9.999921151272
				   9.999925310378
				   9.999929848321
				   9.999934984672
				   9.999940113601
				   9.999945023136
				   9.999949968759
				   9.999955194972
				   9.999960819555
				   9.999966371645
				   9.999971574049
				   9.999976632199
				   9.999982416565
				   9.999988212187
				   9.999994140606
				   10.000000000000
				   10.000000000000
				   9.999995686792
				   9.999991842801
				   9.999988509251
				   9.999984628182
				   9.999980924594
				   9.999977765361
				   9.999974810135
				   9.999971253428
				   9.999968176991
				   9.999965317508
				   9.999962400586
				   9.999959010831
				   9.999956503759
				   9.999953022438
				   9.999949647277
				   9.999946175395
				   9.999941828013
				   9.999937979062
				   9.999934271387
				   9.999929447236
				   9.999924440137
				   9.999920184347
				   9.999915778812
				   9.999911341710
				   9.999907265017
				   9.999903648940
				   9.999900482150
				   9.999897476291
				   9.999894672475
				   9.999891572674
				   9.999888111161
				   9.999884673863
				   9.999881218974
				   9.999878264300
				   9.999875881876
				   9.999873535385
				   9.999871496247
				   9.999869724102
				   9.999867770116
				   9.999866106987
				   9.999865134267
				   9.999864698300
				   9.999865105296
				   9.999866411537
				   9.999867735760
				   9.999868561281
				   9.999869160756
				   9.999869544113
				   9.999869474193
				   9.999869133810
				   9.999868734825
				   9.999868085318
				   9.999867114951
				   9.999866119113
				   9.999865177746
				   9.999864007094
				   9.999862576448
				   9.999861302560
				   9.999860487921
				   9.999860011411
				   9.999859691192
				   9.999859589003
				   9.999859811818
				   9.999860276063
				   9.999860831953
				   9.999861467756
				   9.999862246589
				   9.999863119618
				   9.999863934699
				   9.999864644410
				   9.999865429140
				   9.999866536367
				   9.999868018595
				   9.999869763397
				   9.999871789315
				   9.999874292881
				   9.999877361732
				   9.999880861627
				   9.999884571255
				   9.999888307640
				   9.999892091179
				   9.999896088504
				   9.999900367923
				   9.999905091896
				   9.999910297544
				   9.999915390408
				   9.999920246505
				   9.999925640957
				   9.999931636199
				   9.999937565713
				   9.999943294181
				   9.999949226348
				   9.999955147748
				   9.999961448831
				   9.999967856165
				   9.999973743197
				   9.999980162943
				   9.999986698381
				   9.999993415212
				   10.000000000000
				   10.000000000000
				   9.999995703104
				   9.999991631354
				   9.999986636448
				   9.999983531245
				   9.999979365454
				   9.999975559923
				   9.999972240789
				   9.999968176991
				   9.999964520664
				   9.999961031962
				   9.999957701485
				   9.999953908748
				   9.999950480355
				   9.999946603875
				   9.999942655547
				   9.999938798667
				   9.999934074712
				   9.999929424519
				   9.999925549724
				   9.999920690971
				   9.999914748095
				   9.999909776371
				   9.999905440333
				   9.999900923734
				   9.999896378641
				   9.999892356817
				   9.999888923419
				   9.999885570187
				   9.999882225974
				   9.999878523682
				   9.999874633787
				   9.999870969567
				   9.999867261449
				   9.999863874220
				   9.999861007476
				   9.999858328448
				   9.999856107878
				   9.999854139336
				   9.999851907960
				   9.999850025043
				   9.999849044473
				   9.999848768133
				   9.999849299135
				   9.999850561277
				   9.999851736629
				   9.999852453576
				   9.999853024495
				   9.999853363149
				   9.999853138784
				   9.999852561878
				   9.999851952157
				   9.999851171922
				   9.999850094178
				   9.999848927209
				   9.999847744529
				   9.999846345422
				   9.999844777236
				   9.999843452422
				   9.999842614521
				   9.999842113382
				   9.999841795994
				   9.999841754956
				   9.999842079920
				   9.999842647407
				   9.999843293716
				   9.999844011674
				   9.999844861824
				   9.999845816621
				   9.999846789570
				   9.999847756053
				   9.999848808181
				   9.999850110997
				   9.999851767146
				   9.999853749595
				   9.999856075259
				   9.999858915694
				   9.999862349078
				   9.999866225119
				   9.999870380585
				   9.999874702239
				   9.999879151000
				   9.999883825814
				   9.999888664509
				   9.999893724192
				   9.999899494769
				   9.999905608667
				   9.999911183031
				   9.999916784924
				   9.999923180342
				   9.999929950258
				   9.999936470607
				   9.999943241911
				   9.999949879813
				   9.999956703617
				   9.999964137904
				   9.999971022720
				   9.999978190006
				   9.999985318472
				   9.999992668197
				   10.000000000000
				   10.000000000000
				   9.999995680838
				   9.999991184305
				   9.999986164373
				   9.999982566398
				   9.999978124868
				   9.999973696533
				   9.999969889418
				   9.999965317508
				   9.999961031962
				   9.999957102747
				   9.999953046695
				   9.999949070980
				   9.999944478237
				   9.999940308236
				   9.999935912663
				   9.999931027005
				   9.999926268954
				   9.999921677905
				   9.999916890030
				   9.999911310859
				   9.999905250248
				   9.999900092014
				   9.999895403893
				   9.999890586983
				   9.999885842059
				   9.999881632089
				   9.999877835137
				   9.999873910527
				   9.999870025572
				   9.999865996348
				   9.999861876856
				   9.999857864403
				   9.999853676391
				   9.999849854184
				   9.999846702750
				   9.999843793108
				   9.999841257313
				   9.999838918553
				   9.999836437468
				   9.999834530438
				   9.999833658031
				   9.999833439954
				   9.999833904072
				   9.999835052795
				   9.999836167851
				   9.999836867076
				   9.999837365297
				   9.999837520765
				   9.999837057906
				   9.999836284806
				   9.999835546684
				   9.999834634561
				   9.999833341932
				   9.999831885893
				   9.999830434100
				   9.999828869343
				   9.999827229078
				   9.999825841994
				   9.999824895492
				   9.999824285113
				   9.999823964435
				   9.999824069516
				   9.999824600978
				   9.999825298480
				   9.999825970030
				   9.999826717960
				   9.999827703257
				   9.999828872275
				   9.999830058387
				   9.999831214855
				   9.999832441583
				   9.999833903494
				   9.999835764825
				   9.999838096250
				   9.999840893897
				   9.999844204649
				   9.999848019467
				   9.999852170233
				   9.999856591456
				   9.999861346415
				   9.999866445122
				   9.999871969487
				   9.999877708121
				   9.999883239347
				   9.999889100518
				   9.999895735251
				   9.999902297096
				   9.999908500789
				   9.999915069498
				   9.999922268014
				   9.999929899102
				   9.999937455321
				   9.999944876469
				   9.999952113437
				   9.999960256448
				   9.999968120164
				   9.999976202048
				   9.999984013247
				   9.999991942597
				   10.000000000000
				   10.000000000000
				   9.999995608477
				   9.999990250282
				   9.999985958140
				   9.999981163286
				   9.999976311852
				   9.999971491067
				   9.999967208139
				   9.999962400586
				   9.999957701485
				   9.999953046695
				   9.999948210576
				   9.999943747678
				   9.999938733774
				   9.999933515349
				   9.999928861309
				   9.999923859701
				   9.999918395054
				   9.999913230246
				   9.999908087493
				   9.999902142351
				   9.999895766799
				   9.999890310404
				   9.999885393464
				   9.999880493083
				   9.999875610581
				   9.999871011589
				   9.999866692749
				   9.999862357125
				   9.999858216243
				   9.999853919468
				   9.999849397058
				   9.999844924534
				   9.999840371618
				   9.999836291301
				   9.999832852671
				   9.999829539883
				   9.999826578126
				   9.999823964232
				   9.999821417288
				   9.999819543564
				   9.999818660267
				   9.999818357402
				   9.999818739430
				   9.999819864525
				   9.999820968990
				   9.999821579274
				   9.999821883362
				   9.999821807421
				   9.999821158933
				   9.999820252845
				   9.999819364310
				   9.999818220411
				   9.999816626992
				   9.999814874748
				   9.999813192593
				   9.999811464734
				   9.999809692175
				   9.999808181950
				   9.999807135634
				   9.999806478775
				   9.999806186079
				   9.999806391493
				   9.999807054552
				   9.999807843891
				   9.999808541976
				   9.999809341187
				   9.999810527219
				   9.999812029630
				   9.999813524549
				   9.999814877833
				   9.999816252462
				   9.999817879512
				   9.999819945840
				   9.999822587089
				   9.999825830856
				   9.999829642016
				   9.999833942114
				   9.999838528066
				   9.999843301562
				   9.999848402024
				   9.999853899232
				   9.999859937683
				   9.999866562462
				   9.999873053135
				   9.999879146925
				   9.999885742258
				   9.999893043274
				   9.999900455477
				   9.999907767434
				   9.999914989353
				   9.999923041754
				   9.999931449838
				   9.999939894330
				   9.999947870772
				   9.999956571201
				   9.999965031416
				   9.999973883718
				   9.999982544258
				   9.999991221290
				   10.000000000000
				   10.000000000000
				   9.999995081405
				   9.999989522982
				   9.999985070636
				   9.999979762079
				   9.999974375307
				   9.999969235985
				   9.999964554087
				   9.999959010831
				   9.999953908748
				   9.999949070980
				   9.999943747678
				   9.999937713116
				   9.999932648657
				   9.999927171748
				   9.999921731654
				   9.999916307320
				   9.999910429137
				   9.999904749426
				   9.999899206903
				   9.999892877034
				   9.999886177833
				   9.999880606800
				   9.999875661312
				   9.999870583630
				   9.999865329724
				   9.999860325898
				   9.999855715857
				   9.999851160139
				   9.999846723487
				   9.999842019671
				   9.999837098082
				   9.999832335549
				   9.999827544595
				   9.999823138551
				   9.999819249975
				   9.999815487766
				   9.999812229567
				   9.999809495956
				   9.999806900149
				   9.999804947468
				   9.999803958901
				   9.999803592109
				   9.999803971490
				   9.999805087033
				   9.999806091671
				   9.999806505546
				   9.999806590574
				   9.999806342166
				   9.999805558344
				   9.999804482541
				   9.999803339861
				   9.999801885678
				   9.999800002869
				   9.999798026053
				   9.999796150988
				   9.999794197844
				   9.999792164435
				   9.999790447334
				   9.999789348421
				   9.999788787352
				   9.999788619263
				   9.999788873578
				   9.999789526823
				   9.999790330221
				   9.999791096650
				   9.999792008003
				   9.999793381700
				   9.999795172461
				   9.999796978713
				   9.999798586953
				   9.999800221230
				   9.999802189637
				   9.999804622603
				   9.999807594358
				   9.999811148767